{
  "elements": [
    {
      "symbol": "H",
      "name": "Hydrogen",
      "atomicNumber": 1,
      "atomicMass": 1.008,
      "category": "nonmetal",
      "color": "#ffffff",
      "electronConfiguration": "1s¹",
      "meltingPoint": -259.16,
      "boilingPoint": -252.87,
      "density": 0.08988,
      "uses": ["fuel", "ammonia production", "hydrogenation", "rocket fuel"],
      "safetyInfo": "Highly flammable gas. Can form explosive mixtures with air.",
      "discoveredBy": "Henry Cavendish",
      "discoveryYear": 1766,
      "group": 1,
      "period": 1,
      "block": "s",
      "oxidationStates": [-1, 1],
      "electronegativity": 2.20,
      "ionizationEnergy": 1312,
      "atomicRadius": 25,
      "crystalStructure": "hexagonal"
    },
    {
      "symbol": "He",
      "name": "Helium",
      "atomicNumber": 2,
      "atomicMass": 4.003,
      "category": "noble-gas",
      "color": "#d9ffff",
      "electronConfiguration": "1s²",
      "meltingPoint": -272.2,
      "boilingPoint": -268.93,
      "density": 0.1786,
      "uses": ["balloons", "cryogenics", "breathing gas", "leak detection"],
      "safetyInfo": "Inert gas. Can cause asphyxiation in enclosed spaces.",
      "discoveredBy": "Pierre Janssen",
      "discoveryYear": 1868,
      "group": 18,
      "period": 1,
      "block": "s",
      "oxidationStates": [0],
      "ionizationEnergy": 2372,
      "atomicRadius": 28,
      "crystalStructure": "face-centered cubic"
    },
    {
      "symbol": "Li",
      "name": "Lithium",
      "atomicNumber": 3,
      "atomicMass": 6.94,
      "category": "alkali-metal",
      "color": "#cc80ff",
      "electronConfiguration": "[He] 2s¹",
      "meltingPoint": 180.5,
      "boilingPoint": 1342,
      "density": 0.534,
      "uses": ["batteries", "ceramics", "lubricants", "psychiatric medication"],
      "safetyInfo": "Highly reactive with water. Can cause burns.",
      "discoveredBy": "Johan August Arfwedson",
      "discoveryYear": 1817,
      "group": 1,
      "period": 2,
      "block": "s",
      "oxidationStates": [1],
      "electronegativity": 0.98,
      "ionizationEnergy": 520,
      "atomicRadius": 145,
      "crystalStructure": "body-centered cubic"
    },
    {
      "symbol": "C",
      "name": "Carbon",
      "atomicNumber": 6,
      "atomicMass": 12.011,
      "category": "nonmetal",
      "color": "#909090",
      "electronConfiguration": "[He] 2s² 2p²",
      "meltingPoint": 3550,
      "boilingPoint": 4027,
      "density": 2.267,
      "uses": ["steel production", "diamonds", "graphite", "organic compounds"],
      "safetyInfo": "Generally safe in solid form. Carbon monoxide is toxic.",
      "discoveredBy": "Ancient",
      "discoveryYear": -3750,
      "group": 14,
      "period": 2,
      "block": "p",
      "oxidationStates": [-4, -3, -2, -1, 0, 1, 2, 3, 4],
      "electronegativity": 2.55,
      "ionizationEnergy": 1086,
      "atomicRadius": 70,
      "crystalStructure": "diamond cubic"
    },
    {
      "symbol": "O",
      "name": "Oxygen",
      "atomicNumber": 8,
      "atomicMass": 15.999,
      "category": "nonmetal",
      "color": "#ff0d0d",
      "electronConfiguration": "[He] 2s² 2p⁴",
      "meltingPoint": -218.79,
      "boilingPoint": -182.96,
      "density": 1.429,
      "uses": ["respiration", "combustion", "steel production", "water treatment"],
      "safetyInfo": "Supports combustion. High concentrations can be toxic.",
      "discoveredBy": "Carl Wilhelm Scheele",
      "discoveryYear": 1774,
      "group": 16,
      "period": 2,
      "block": "p",
      "oxidationStates": [-2, -1, 0],
      "electronegativity": 3.44,
      "ionizationEnergy": 1314,
      "atomicRadius": 60,
      "crystalStructure": "cubic"
    }
  ]
}